{
    "steam-tables": [
        {
            "tableId": "A-1",
            "tableTitle": "Molar Mass, gas constant, adn ciritcal point properties",
            "tableProperties": [
            	"tableNote": "The unit kJ/kg&#8226;K is equivalent to kPa&#8226;m<sup>3</sup>/kg&#8226;K. The gas constant is calulated from R=R<small>u</small>/M<small>m</small> where R<small>u</small>=8.31447 kJ/kmol&#8226;K and M<small>m</small> is the molar mass.",
            	"numberRows":"35",
            	"numberCols":"6",
            	"tableData": [
            		"titleRow": [
            			"columnTitle-1":"Substance",
            			"columnTitle-2":"Formula",
            			"columnTitle-3":"Molar Mass, M (kg/kmol)",
            			"columnTitle-4":"Gas constant, R kJ/kg&#8226;K",
            			"columnTitle-5":"Critical-point temperature, K",
            			"columnTitle-6":"Critical-point pressure, MPa",
            			"columnTitle-7":"Critical-point volume, m<sup>3</sup>/kmol",
            		],
            		"rowData":[
            			"rowIndex":"1",
            			"substanceColumn":"Air",
            			"formulaColumn":"N/A",
            			"molarMassColumn":"28.97",
            			"gasConstantColumn":"0.2870",
            			"criticalTemperatureColumn":"132.5",
            			"criticalPressureColumn":"3.77",
            			"criticalVolumeColumn":"0.0883",
            		],
            		"rowData":[
            			"rowIndex":"2",
            			"substanceColumn":"Ammonia",
            			"formulaColumn":"NH<small>3</small>",
            			"molarMassColumn":"17.03",
            			"gasConstantColumn":"0.4882",
            			"criticalTemperatureColumn":"0.2081",
            			"criticalPressureColumn":"151",
            			"criticalVolumeColumn":"0.0724",
            		],
            		"rowData":[
            			"rowIndex":"3",
            			"substanceColumn":"Argon",
            			"formulaColumn":"Ar",
            			"molarMassColumn":"39.948",
            			"gasConstantColumn":"",
            			"criticalTemperatureColumn":"",
            			"criticalPressureColumn":"",
            			"criticalVolumeColumn":"",
            		],
            		"rowData":[
            			"rowIndex":"",
            			"substanceColumn":"",
            			"formulaColumn":"",
            			"molarMassColumn":"",
            			"gasConstantColumn":"",
            			"criticalTemperatureColumn":"",
            			"criticalPressureColumn":"",
            			"criticalVolumeColumn":"",
            		],
            		"rowData":[
            			"rowIndex":"",
            			"substanceColumn":"",
            			"formulaColumn":"",
            			"molarMassColumn":"",
            			"gasConstantColumn":"",
            			"criticalTemperatureColumn":"",
            			"criticalPressureColumn":"",
            			"criticalVolumeColumn":"",
            		],
            		"rowData":[
            			"rowIndex":"",
            			"substanceColumn":"",
            			"formulaColumn":"",
            			"molarMassColumn":"",
            			"gasConstantColumn":"",
            			"criticalTemperatureColumn":"",
            			"criticalPressureColumn":"",
            			"criticalVolumeColumn":"",
            		],
            		"rowData":[
            			"rowIndex":"",
            			"substanceColumn":"",
            			"formulaColumn":"",
            			"molarMassColumn":"",
            			"gasConstantColumn":"",
            			"criticalTemperatureColumn":"",
            			"criticalPressureColumn":"",
            			"criticalVolumeColumn":"",
            		],
            		"rowData":[
            			"rowIndex":"",
            			"substanceColumn":"",
            			"formulaColumn":"",
            			"molarMassColumn":"",
            			"gasConstantColumn":"",
            			"criticalTemperatureColumn":"",
            			"criticalPressureColumn":"",
            			"criticalVolumeColumn":"",
            		],
            		"rowData":[
            			"rowIndex":"1",
            			"substanceColumn":"Air",
            			"formulaColumn":"N/A",
            			"molarMassColumn":"28.97",
            			"gasConstantColumn":"0.2870",
            			"criticalTemperatureColumn":"132.5",
            			"criticalPressureColumn":"3.77",
            			"criticalVolumeColumn":"0.0883",
            		],
            		"rowData":[
            			"rowIndex":"2",
            			"substanceColumn":"Ammonia",
            			"formulaColumn":"NH<small>3</small>",
            			"molarMassColumn":"17.03",
            			"gasConstantColumn":"0.4882",
            			"criticalTemperatureColumn":"0.2081",
            			"criticalPressureColumn":"151",
            			"criticalVolumeColumn":"0.0724",
            		],
            		"rowData":[
            			"rowIndex":"",
            			"substanceColumn":"",
            			"formulaColumn":"",
            			"molarMassColumn":"",
            			"gasConstantColumn":"",
            			"criticalTemperatureColumn":"",
            			"criticalPressureColumn":"",
            			"criticalVolumeColumn":"",
            		],
            		"rowData":[
            			"rowIndex":"",
            			"substanceColumn":"",
            			"formulaColumn":"",
            			"molarMassColumn":"",
            			"gasConstantColumn":"",
            			"criticalTemperatureColumn":"",
            			"criticalPressureColumn":"",
            			"criticalVolumeColumn":"",
            		],
            		"rowData":[
            			"rowIndex":"",
            			"substanceColumn":"",
            			"formulaColumn":"",
            			"molarMassColumn":"",
            			"gasConstantColumn":"",
            			"criticalTemperatureColumn":"",
            			"criticalPressureColumn":"",
            			"criticalVolumeColumn":"",
            		],
            		"rowData":[
            			"rowIndex":"",
            			"substanceColumn":"",
            			"formulaColumn":"",
            			"molarMassColumn":"",
            			"gasConstantColumn":"",
            			"criticalTemperatureColumn":"",
            			"criticalPressureColumn":"",
            			"criticalVolumeColumn":"",
            		],
            		"rowData":[
            			"rowIndex":"",
            			"substanceColumn":"",
            			"formulaColumn":"",
            			"molarMassColumn":"",
            			"gasConstantColumn":"",
            			"criticalTemperatureColumn":"",
            			"criticalPressureColumn":"",
            			"criticalVolumeColumn":"",
            		],
            		"rowData":[
            			"rowIndex":"",
            			"substanceColumn":"",
            			"formulaColumn":"",
            			"molarMassColumn":"",
            			"gasConstantColumn":"",
            			"criticalTemperatureColumn":"",
            			"criticalPressureColumn":"",
            			"criticalVolumeColumn":"",
            		],
            		"rowData":[
            			"rowIndex":"",
            			"substanceColumn":"",
            			"formulaColumn":"",
            			"molarMassColumn":"",
            			"gasConstantColumn":"",
            			"criticalTemperatureColumn":"",
            			"criticalPressureColumn":"",
            			"criticalVolumeColumn":"",
            		],
            		"rowData":[
            			"rowIndex":"",
            			"substanceColumn":"",
            			"formulaColumn":"",
            			"molarMassColumn":"",
            			"gasConstantColumn":"",
            			"criticalTemperatureColumn":"",
            			"criticalPressureColumn":"",
            			"criticalVolumeColumn":"",
            		],
            		"rowData":[
            			"rowIndex":"",
            			"substanceColumn":"",
            			"formulaColumn":"",
            			"molarMassColumn":"",
            			"gasConstantColumn":"",
            			"criticalTemperatureColumn":"",
            			"criticalPressureColumn":"",
            			"criticalVolumeColumn":"",
            		],
            		"rowData":[
            			"rowIndex":"",
            			"substanceColumn":"",
            			"formulaColumn":"",
            			"molarMassColumn":"",
            			"gasConstantColumn":"",
            			"criticalTemperatureColumn":"",
            			"criticalPressureColumn":"",
            			"criticalVolumeColumn":"",
            		],
            		"rowData":[
            			"rowIndex":"",
            			"substanceColumn":"",
            			"formulaColumn":"",
            			"molarMassColumn":"",
            			"gasConstantColumn":"",
            			"criticalTemperatureColumn":"",
            			"criticalPressureColumn":"",
            			"criticalVolumeColumn":"",
            		],
            		"rowData":[
            			"rowIndex":"",
            			"substanceColumn":"",
            			"formulaColumn":"",
            			"molarMassColumn":"",
            			"gasConstantColumn":"",
            			"criticalTemperatureColumn":"",
            			"criticalPressureColumn":"",
            			"criticalVolumeColumn":"",
            		],
            		"rowData":[
            			"rowIndex":"1",
            			"substanceColumn":"Air",
            			"formulaColumn":"N/A",
            			"molarMassColumn":"28.97",
            			"gasConstantColumn":"0.2870",
            			"criticalTemperatureColumn":"132.5",
            			"criticalPressureColumn":"3.77",
            			"criticalVolumeColumn":"0.0883",
            		],
            		"rowData":[
            			"rowIndex":"2",
            			"substanceColumn":"Ammonia",
            			"formulaColumn":"NH<small>3</small>",
            			"molarMassColumn":"17.03",
            			"gasConstantColumn":"0.4882",
            			"criticalTemperatureColumn":"0.2081",
            			"criticalPressureColumn":"151",
            			"criticalVolumeColumn":"0.0724",
            		],
            		"rowData":[
            			"rowIndex":"",
            			"substanceColumn":"",
            			"formulaColumn":"",
            			"molarMassColumn":"",
            			"gasConstantColumn":"",
            			"criticalTemperatureColumn":"",
            			"criticalPressureColumn":"",
            			"criticalVolumeColumn":"",
            		],
            		"rowData":[
            			"rowIndex":"",
            			"substanceColumn":"",
            			"formulaColumn":"",
            			"molarMassColumn":"",
            			"gasConstantColumn":"",
            			"criticalTemperatureColumn":"",
            			"criticalPressureColumn":"",
            			"criticalVolumeColumn":"",
            		],
            		"rowData":[
            			"rowIndex":"",
            			"substanceColumn":"",
            			"formulaColumn":"",
            			"molarMassColumn":"",
            			"gasConstantColumn":"",
            			"criticalTemperatureColumn":"",
            			"criticalPressureColumn":"",
            			"criticalVolumeColumn":"",
            		],
            		"rowData":[
            			"rowIndex":"",
            			"substanceColumn":"",
            			"formulaColumn":"",
            			"molarMassColumn":"",
            			"gasConstantColumn":"",
            			"criticalTemperatureColumn":"",
            			"criticalPressureColumn":"",
            			"criticalVolumeColumn":"",
            		],
            		"rowData":[
            			"rowIndex":"",
            			"substanceColumn":"",
            			"formulaColumn":"",
            			"molarMassColumn":"",
            			"gasConstantColumn":"",
            			"criticalTemperatureColumn":"",
            			"criticalPressureColumn":"",
            			"criticalVolumeColumn":"",
            		],
            		"rowData":[
            			"rowIndex":"",
            			"substanceColumn":"",
            			"formulaColumn":"",
            			"molarMassColumn":"",
            			"gasConstantColumn":"",
            			"criticalTemperatureColumn":"",
            			"criticalPressureColumn":"",
            			"criticalVolumeColumn":"",
            		],
            		"rowData":[
            			"rowIndex":"",
            			"substanceColumn":"",
            			"formulaColumn":"",
            			"molarMassColumn":"",
            			"gasConstantColumn":"",
            			"criticalTemperatureColumn":"",
            			"criticalPressureColumn":"",
            			"criticalVolumeColumn":"",
            		],
            		"rowData":[
            			"rowIndex":"",
            			"substanceColumn":"",
            			"formulaColumn":"",
            			"molarMassColumn":"",
            			"gasConstantColumn":"",
            			"criticalTemperatureColumn":"",
            			"criticalPressureColumn":"",
            			"criticalVolumeColumn":"",
            		],
            		"rowData":[
            			"rowIndex":"",
            			"substanceColumn":"",
            			"formulaColumn":"",
            			"molarMassColumn":"",
            			"gasConstantColumn":"",
            			"criticalTemperatureColumn":"",
            			"criticalPressureColumn":"",
            			"criticalVolumeColumn":"",
            		],
            		"rowData":[
            			"rowIndex":"",
            			"substanceColumn":"",
            			"formulaColumn":"",
            			"molarMassColumn":"",
            			"gasConstantColumn":"",
            			"criticalTemperatureColumn":"",
            			"criticalPressureColumn":"",
            			"criticalVolumeColumn":"",
            		],
            		"rowData":[
            			"rowIndex":"",
            			"substanceColumn":"",
            			"formulaColumn":"",
            			"molarMassColumn":"",
            			"gasConstantColumn":"",
            			"criticalTemperatureColumn":"",
            			"criticalPressureColumn":"",
            			"criticalVolumeColumn":"",
            		],
            		"rowData":[
            			"rowIndex":"",
            			"substanceColumn":"",
            			"formulaColumn":"",
            			"molarMassColumn":"",
            			"gasConstantColumn":"",
            			"criticalTemperatureColumn":"",
            			"criticalPressureColumn":"",
            			"criticalVolumeColumn":"",
            		],
            		"rowData":[
            			"rowIndex":"1",
            			"substanceColumn":"Air",
            			"formulaColumn":"N/A",
            			"molarMassColumn":"28.97",
            			"gasConstantColumn":"0.2870",
            			"criticalTemperatureColumn":"132.5",
            			"criticalPressureColumn":"3.77",
            			"criticalVolumeColumn":"0.0883",
            		],
            		"rowData":[
            			"rowIndex":"2",
            			"substanceColumn":"Ammonia",
            			"formulaColumn":"NH<small>3</small>",
            			"molarMassColumn":"17.03",
            			"gasConstantColumn":"0.4882",
            			"criticalTemperatureColumn":"0.2081",
            			"criticalPressureColumn":"151",
            			"criticalVolumeColumn":"0.0724",
            		],
            		"rowData":[
            			"rowIndex":"",
            			"substanceColumn":"",
            			"formulaColumn":"",
            			"molarMassColumn":"",
            			"gasConstantColumn":"",
            			"criticalTemperatureColumn":"",
            			"criticalPressureColumn":"",
            			"criticalVolumeColumn":"",
            		],
            		"rowData":[
            			"rowIndex":"",
            			"substanceColumn":"",
            			"formulaColumn":"",
            			"molarMassColumn":"",
            			"gasConstantColumn":"",
            			"criticalTemperatureColumn":"",
            			"criticalPressureColumn":"",
            			"criticalVolumeColumn":"",
            		],
            		"rowData":[
            			"rowIndex":"",
            			"substanceColumn":"",
            			"formulaColumn":"",
            			"molarMassColumn":"",
            			"gasConstantColumn":"",
            			"criticalTemperatureColumn":"",
            			"criticalPressureColumn":"",
            			"criticalVolumeColumn":"",
            		],
            		"rowData":[
            			"rowIndex":"",
            			"substanceColumn":"",
            			"formulaColumn":"",
            			"molarMassColumn":"",
            			"gasConstantColumn":"",
            			"criticalTemperatureColumn":"",
            			"criticalPressureColumn":"",
            			"criticalVolumeColumn":"",
            		],
            		"rowData":[
            			"rowIndex":"",
            			"substanceColumn":"",
            			"formulaColumn":"",
            			"molarMassColumn":"",
            			"gasConstantColumn":"",
            			"criticalTemperatureColumn":"",
            			"criticalPressureColumn":"",
            			"criticalVolumeColumn":"",
            		],
            		"rowData":[
            			"rowIndex":"",
            			"substanceColumn":"",
            			"formulaColumn":"",
            			"molarMassColumn":"",
            			"gasConstantColumn":"",
            			"criticalTemperatureColumn":"",
            			"criticalPressureColumn":"",
            			"criticalVolumeColumn":"",
            		],
            	]

            ]
        },
        {
            "tableId": "A-2",
            "tableTitle": "Ideal-gas specific heats of various gases",
            "tableProperties": [

            ]
        },
        {
            "tableId": "A-3",
            "tableTitle": "Properties of common liquids, solids, and foods",
            "tableProperties": [

            ]
        },
        {
            "tableId": "A-4",
            "tableTitle": "Saturated water - Temperature table",
            "tableProperties": [

            ]
        },
        {
            "tableId": "A-5",
            "tableTitle": "Saturated water - Pressure table",
            "tableProperties": [

            ]
        },
        {
            "tableId": "A-6",
            "tableTitle": "Superheated water",
            "tableProperties": [

            ]
        },
        {
            "tableId": "A-7",
            "tableTitle": "Compressed liquid water",
            "tableProperties": [

            ]
        },
        {
            "tableId": "A-8",
            "tableTitle": "Saturated ice - water vapor",
            "tableProperties": [

            ]
        },
        {
            "tableId": "A-9",
            "tableTitle": "T-s diagram for water",
            "tableProperties": [

            ]
        },
        {
            "tableId": "A-10",
            "tableTitle": "Mollier diagram for water",
            "tableProperties": [

            ]
        },
        {
            "tableId": "A-11",
            "tableTitle": "Saturated refrigerant-134a - Temperature table",
            "tableProperties": [

            ]
        },
        {
            "tableId": "A-12",
            "tableTitle": "Saturated refrigerant-134a - Pressure table",
            "tableProperties": [

            ]
        },
        {
            "tableId": "A-13",
            "tableTitle": "Superheated refrigerant-134a",
            "tableProperties": [

            ]
        },
        {
            "tableId": "A-14",
            "tableTitle": "P-h diagram for refrigerant-134a",
            "tableProperties": [

            ]
        },
        {
            "tableId": "A-15",
            "tableTitle": "Nelson-Obert generalized compressibility chart",
            "tableProperties": [

            ]
        },
        {
            "tableId": "A-16",
            "tableTitle": "Properties of the atmosphere at high altitude",
            "tableProperties": [

            ]
        },
        {
            "tableId": "A-17",
            "tableTitle": "Ideal-gas properties of air",
            "tableProperties": [

            ]
        },
        {
            "tableId": "A-18",
            "tableTitle": "Ideal-gas properties of nitrogen, N<small>2</small>",
            "tableProperties": [

            ]
        },
        {
            "tableId": "A-19",
            "tableTitle": "Ideal-gas properties of ovygen, O<small>2</small>",
            "tableProperties": [

            ]
        },
        {
            "tableId": "A-20",
            "tableTitle": "Ideal-gas properties of carbon dioxide, CO<small>2</small>",
            "tableProperties": [

            ]
        },
        {
            "tableId": "A-21",
            "tableTitle": "Ideal-gas properties of carbon monoxide, CO",
            "tableProperties": [

            ]
        },
        {
            "tableId": "A-22",
            "tableTitle": "Ideal-gas properties of hydrogen, H<small>2</small>",
            "tableProperties": [

            ]
        },
        {
            "tableId": "A-23",
            "tableTitle": "Ideal-gas properties of monoatomic oxygen, O",
            "tableProperties": [

            ]
        },
        {
            "tableId": "A-24",
            "tableTitle": "Ideal-gas properties of hydroxl, OH",
            "tableProperties": [

            ]
        },
        {
            "tableId": "A-25",
            "tableTitle": "Ideal-gas properties of ",
            "tableProperties": [

            ]
        },
        {
            "tableId": "A-26",
            "tableTitle": "Enthalpy of formation, Gibbs function of formation, and absolute entropy at 25<sup>o</sup>C, 1 atm",
            "tableProperties": [

            ]
        },
        {
            "tableId": "A-27",
            "tableTitle": "Properties of some common fuels and hydrocarbons",
            "tableProperties": [

            ]
        },
        {
            "tableId": "A-28",
            "tableTitle": "Natural logarithms of the equilibrium constant K<small>p</small>",
            "tableProperties": [

            ]
        },
        {
            "tableId": "A-29",
            "tableTitle": "Generalized enthalpy departure chart",
            "tableProperties": [

            ]
        },
        {
            "tableId": "A-30",
            "tableTitle": "Generalized entropy departure chart",
            "tableProperties": [

            ]
        },
        {
            "tableId": "A-31",
            "tableTitle": "Psychrometric chart at 1 atm total pressure",
            "tableProperties": [

            ]
        },
        {
            "tableId": "A-32",
            "tableTitle": "One-dimensional isentropic compressible-flow functions for and ideal gas with k = 1.4",
            "tableProperties": [

            ]
        },
        {
            "tableId": "A-33",
            "tableTitle": "One-dimensional normal-shock functions for an ideal gas with k = 1.4",
            "tableProperties": [

            ]
        },
        {
            "tableId": "A-34",
            "tableTitle": "Rayleigh flow functions for an ideal gas with k = 1.4",
            "tableProperties": [

            ]
        }
    ]
};
